frame t= 6.828
   22
    1ACE   HH31    1   1.490   0.979   1.441
    1ACE    CH3    2   1.478   1.090   1.457
    1ACE   HH32    3   1.572   1.134   1.420
    1ACE   HH33    4   1.466   1.106   1.561
    1ACE      C    5   1.360   1.158   1.391
    1ACE      O    6   1.256   1.178   1.454
    2ALA      N    7   1.371   1.180   1.264
    2ALA      H    8   1.457   1.151   1.221
    2ALA     CA    9   1.257   1.168   1.168
    2ALA     HA   10   1.307   1.172   1.072
    2ALA     CB   11   1.202   1.029   1.165
    2ALA    HB1   12   1.280   0.951   1.169
    2ALA    HB2   13   1.131   1.019   1.243
    2ALA    HB3   14   1.142   1.020   1.070
    2ALA      C   15   1.148   1.281   1.167
    2ALA      O   16   1.046   1.283   1.095
    3NME      N   17   1.184   1.387   1.235
    3NME      H   18   1.269   1.372   1.290
    3NME    CH3   19   1.129   1.521   1.240
    3NME   HH31   20   1.026   1.523   1.285
    3NME   HH32   21   1.194   1.594   1.287
    3NME   HH33   22   1.116   1.553   1.135
   2.50000   2.50000   2.50000
