frame t= 9.213
   22
    1ACE   HH31    1   1.217   0.996   1.598
    1ACE    CH3    2   1.170   0.984   1.498
    1ACE   HH32    3   1.077   1.048   1.495
    1ACE   HH33    4   1.139   0.881   1.473
    1ACE      C    5   1.259   1.041   1.394
    1ACE      O    6   1.376   1.017   1.409
    2ALA      N    7   1.198   1.126   1.306
    2ALA      H    8   1.101   1.131   1.299
    2ALA     CA    9   1.276   1.213   1.218
    2ALA     HA   10   1.373   1.222   1.262
    2ALA     CB   11   1.313   1.155   1.083
    2ALA    HB1   12   1.363   1.059   1.100
    2ALA    HB2   13   1.221   1.140   1.029
    2ALA    HB3   14   1.385   1.226   1.041
    2ALA      C   15   1.217   1.356   1.217
    2ALA      O   16   1.180   1.402   1.321
    3NME      N   17   1.224   1.434   1.106
    3NME      H   18   1.219   1.393   1.014
    3NME    CH3   19   1.218   1.577   1.108
    3NME   HH31   20   1.126   1.608   1.060
    3NME   HH32   21   1.232   1.613   1.212
    3NME   HH33   22   1.300   1.617   1.048
   2.50000   2.50000   2.50000
