Protein
   22
    1ACE   HH31    1   1.164   1.132   0.885  0.5066  1.9983  0.9414
    1ACE    CH3    2   1.093   1.120   0.971 -0.1485  0.4799  0.6755
    1ACE   HH32    3   1.111   1.018   1.017 -0.3969 -0.8917 -0.7576
    1ACE   HH33    4   0.985   1.132   0.941 -0.1174 -0.3753 -0.9578
    1ACE      C    5   1.127   1.224   1.075 -0.0136 -1.0550  0.4457
    1ACE      O    6   1.129   1.343   1.038 -0.1034  0.6172 -0.0611
    2ALA      N    7   1.151   1.184   1.201  0.2896 -0.5972  0.6847
    2ALA      H    8   1.143   1.085   1.221 -0.4910  1.1384 -0.7153
    2ALA     CA    9   1.204   1.270   1.306 -0.0983 -0.1019 -1.4742
    2ALA     HA   10   1.219   1.372   1.272 -0.2669  0.0778  0.1539
    2ALA     CB   11   1.093   1.276   1.413 -0.1193  0.7109  0.1156
    2ALA    HB1   12   1.126   1.340   1.493 -0.1884  2.1228  0.3632
    2ALA    HB2   13   1.012   1.328   1.361  0.4219 -0.2500  1.6085
    2ALA    HB3   14   1.056   1.180   1.446 -1.4277 -1.2533  0.5372
    2ALA      C   15   1.330   1.212   1.375  0.4320 -0.4760 -0.8514
    2ALA      O   16   1.377   1.109   1.337  0.2654  0.1747 -0.5538
    3NME      N   17   1.398   1.292   1.458 -0.2329  0.1442 -0.2245
    3NME      H   18   1.354   1.385   1.463 -0.6168  2.6053 -0.2769
    3NME    CH3   19   1.529   1.267   1.518  0.0374 -0.5044  1.3061
    3NME   HH31   20   1.596   1.242   1.442 -1.3521 -2.1179  0.2414
    3NME   HH32   21   1.566   1.359   1.566 -0.7594  1.0951 -0.4978
    3NME   HH33   22   1.528   1.177   1.575  0.4511 -0.0471  0.0762
   2.50000   2.50000   2.50000
