Protein
   22
    1ACE   HH31    1   1.088   1.110   0.940 -2.0386 -1.5433  2.1463
    1ACE    CH3    2   1.190   1.141   0.936  0.3977  0.4259 -0.5905
    1ACE   HH32    3   1.182   1.186   0.841 -2.6289 -2.4620  0.5221
    1ACE   HH33    4   1.260   1.057   0.932 -0.1963 -1.9746 -0.0224
    1ACE      C    5   1.221   1.241   1.047  0.3629  0.3541 -0.7354
    1ACE      O    6   1.287   1.343   1.025  0.4006 -0.1797 -0.3453
    2ALA      N    7   1.188   1.207   1.169  0.2313 -0.1499  0.6283
    2ALA      H    8   1.170   1.110   1.187 -0.7895 -1.5870 -1.6438
    2ALA     CA    9   1.196   1.280   1.294 -0.7290  0.1248  0.1578
    2ALA     HA   10   1.262   1.371   1.272  1.7669  2.4685 -1.1172
    2ALA     CB   11   1.058   1.311   1.336  0.5980  0.1149 -0.1465
    2ALA    HB1   12   1.057   1.388   1.418 -1.3884  0.1921  1.4302
    2ALA    HB2   13   1.006   1.359   1.252 -2.8693  2.2273  1.9939
    2ALA    HB3   14   1.016   1.216   1.365  0.2292  1.6078  0.0962
    2ALA      C   15   1.274   1.200   1.396  0.4502 -0.4572  0.0092
    2ALA      O   16   1.260   1.077   1.395 -0.2976 -0.4454 -0.4226
    3NME      N   17   1.339   1.271   1.492 -0.3734  0.2509  0.0030
    3NME      H   18   1.333   1.371   1.504 -0.0233  0.8124  3.0676
    3NME    CH3   19   1.420   1.206   1.596 -0.3651  0.0773  0.8318
    3NME   HH31   20   1.497   1.133   1.552 -1.2984  0.1609  0.6690
    3NME   HH32   21   1.478   1.279   1.649 -0.7855 -0.7619  0.8817
    3NME   HH33   22   1.364   1.140   1.660  1.9450  0.3352  1.0510
   2.50000   2.50000   2.50000
