frame t= 6.114
   22
    1ACE   HH31    1   1.549   1.304   1.161
    1ACE    CH3    2   1.559   1.234   1.250
    1ACE   HH32    3   1.633   1.269   1.317
    1ACE   HH33    4   1.588   1.134   1.222
    1ACE      C    5   1.425   1.219   1.313
    1ACE      O    6   1.391   1.306   1.393
    2ALA      N    7   1.356   1.108   1.284
    2ALA      H    8   1.406   1.031   1.241
    2ALA     CA    9   1.207   1.103   1.262
    2ALA     HA   10   1.186   1.019   1.198
    2ALA     CB   11   1.123   1.073   1.395
    2ALA    HB1   12   1.163   0.975   1.432
    2ALA    HB2   13   1.141   1.143   1.471
    2ALA    HB3   14   1.013   1.069   1.384
    2ALA      C   15   1.137   1.226   1.192
    2ALA      O   16   1.123   1.226   1.070
    3NME      N   17   1.092   1.331   1.267
    3NME      H   18   1.108   1.324   1.364
    3NME    CH3   19   1.021   1.447   1.225
    3NME   HH31   20   0.974   1.426   1.127
    3NME   HH32   21   0.943   1.470   1.294
    3NME   HH33   22   1.090   1.529   1.214
   2.50000   2.50000   2.50000
