frame t= 33.047
   22
    1ACE   HH31    1   1.329   0.922   1.514
    1ACE    CH3    2   1.393   0.985   1.451
    1ACE   HH32    3   1.429   0.925   1.362
    1ACE   HH33    4   1.472   1.023   1.516
    1ACE      C    5   1.309   1.101   1.388
    1ACE      O    6   1.203   1.136   1.430
    2ALA      N    7   1.379   1.171   1.296
    2ALA      H    8   1.474   1.127   1.279
    2ALA     CA    9   1.348   1.295   1.227
    2ALA     HA   10   1.361   1.368   1.308
    2ALA     CB   11   1.470   1.331   1.145
    2ALA    HB1   12   1.475   1.439   1.118
    2ALA    HB2   13   1.552   1.298   1.195
    2ALA    HB3   14   1.474   1.281   1.049
    2ALA      C   15   1.207   1.326   1.165
    2ALA      O   16   1.194   1.424   1.089
    3NME      N   17   1.104   1.247   1.194
    3NME      H   18   1.115   1.172   1.258
    3NME    CH3   19   0.971   1.276   1.137
    3NME   HH31   20   0.925   1.363   1.178
    3NME   HH32   21   0.970   1.288   1.027
    3NME   HH33   22   0.905   1.194   1.164
   2.50000   2.50000   2.50000
