frame t= 8.145
   22
    1ACE   HH31    1   1.430   1.103   1.546
    1ACE    CH3    2   1.342   1.045   1.528
    1ACE   HH32    3   1.266   1.100   1.581
    1ACE   HH33    4   1.363   0.944   1.562
    1ACE      C    5   1.312   1.052   1.380
    1ACE      O    6   1.369   0.976   1.304
    2ALA      N    7   1.236   1.154   1.346
    2ALA      H    8   1.197   1.211   1.413
    2ALA     CA    9   1.239   1.205   1.209
    2ALA     HA   10   1.338   1.202   1.170
    2ALA     CB   11   1.161   1.124   1.116
    2ALA    HB1   12   1.212   1.028   1.120
    2ALA    HB2   13   1.056   1.105   1.138
    2ALA    HB3   14   1.175   1.158   1.013
    2ALA      C   15   1.195   1.350   1.217
    2ALA      O   16   1.151   1.388   1.325
    3NME      N   17   1.213   1.433   1.111
    3NME      H   18   1.264   1.399   1.028
    3NME    CH3   19   1.207   1.576   1.120
    3NME   HH31   20   1.287   1.621   1.182
    3NME   HH32   21   1.218   1.608   1.015
    3NME   HH33   22   1.115   1.607   1.165
   2.50000   2.50000   2.50000
