frame t= 11.986
   22
    1ACE   HH31    1   1.125   0.872   1.235
    1ACE    CH3    2   1.052   0.930   1.282
    1ACE   HH32    3   0.973   0.888   1.348
    1ACE   HH33    4   1.001   0.980   1.200
    1ACE      C    5   1.129   1.039   1.356
    1ACE      O    6   1.160   1.027   1.475
    2ALA      N    7   1.155   1.152   1.281
    2ALA      H    8   1.108   1.153   1.192
    2ALA     CA    9   1.253   1.261   1.307
    2ALA     HA   10   1.218   1.328   1.386
    2ALA     CB   11   1.377   1.191   1.360
    2ALA    HB1   12   1.357   1.192   1.471
    2ALA    HB2   13   1.392   1.087   1.325
    2ALA    HB3   14   1.475   1.241   1.344
    2ALA      C   15   1.296   1.352   1.180
    2ALA      O   16   1.249   1.337   1.068
    3NME      N   17   1.371   1.462   1.201
    3NME      H   18   1.404   1.480   1.296
    3NME    CH3   19   1.392   1.573   1.109
    3NME   HH31   20   1.311   1.591   1.043
    3NME   HH32   21   1.407   1.667   1.163
    3NME   HH33   22   1.478   1.552   1.043
   2.50000   2.50000   2.50000
