frame t= 28.788
   22
    1ACE   HH31    1   1.221   0.905   1.503
    1ACE    CH3    2   1.304   0.972   1.491
    1ACE   HH32    3   1.402   0.914   1.492
    1ACE   HH33    4   1.310   1.046   1.574
    1ACE      C    5   1.288   1.040   1.355
    1ACE      O    6   1.334   0.989   1.256
    2ALA      N    7   1.201   1.141   1.341
    2ALA      H    8   1.159   1.175   1.427
    2ALA     CA    9   1.181   1.211   1.209
    2ALA     HA   10   1.225   1.145   1.137
    2ALA     CB   11   1.036   1.236   1.172
    2ALA    HB1   12   1.019   1.226   1.065
    2ALA    HB2   13   0.964   1.168   1.212
    2ALA    HB3   14   1.027   1.335   1.204
    2ALA      C   15   1.270   1.334   1.208
    2ALA      O   16   1.316   1.375   1.315
    3NME      N   17   1.291   1.402   1.097
    3NME      H   18   1.265   1.356   1.011
    3NME    CH3   19   1.338   1.540   1.102
    3NME   HH31   20   1.261   1.603   1.149
    3NME   HH32   21   1.432   1.544   1.161
    3NME   HH33   22   1.369   1.568   0.999
   2.50000   2.50000   2.50000
